/*--------------------------------*- C++ -*----------------------------------*\
  =========                 |
  \\      /  F ield         | OpenFOAM: The Open Source CFD Toolbox
   \\    /   O peration     | Website:  https://openfoam.org
    \\  /    A nd           | Version:  11
     \\/     M anipulation  |
\*---------------------------------------------------------------------------*/
FoamFile
{
    format      ascii;
    class       volVectorField;
    location    "0";
    object      wallShearStress;
}
// * * * * * * * * * * * * * * * * * * * * * * * * * * * * * * * * * * * * * //

dimensions      [0 2 -2 0 0 0 0];

internalField   uniform (0 0 0);

boundaryField
{
    side
    {
        type            empty;
    }
    inlet
    {
        type            calculated;
        value           uniform (0 0 0);
    }
    airfoil
    {
        type            calculated;
        value           nonuniform List<vector> 
157
(
(-1.59702 -0.267885 -2.71839e-21)
(-1.52837 -0.318291 3.01131e-21)
(-1.49842 -0.368144 -2.205e-21)
(-1.49957 -0.416052 9.92676e-21)
(-1.52672 -0.461177 0)
(-1.57909 -0.504299 6.54214e-20)
(-1.6583 -0.544539 0)
(-1.76688 -0.580524 -6.11077e-20)
(-1.90695 -0.610452 -7.09062e-20)
(-2.07392 -0.631645 6.18674e-20)
(-2.26391 -0.642839 -1.39733e-19)
(-2.4747 -0.643456 -3.35615e-19)
(-2.70529 -0.63325 5.17233e-19)
(-2.97058 -0.612509 -2.51219e-19)
(-3.28636 -0.580965 -6.27279e-19)
(-3.66205 -0.53865 4.60423e-19)
(-4.14533 -0.486587 -2.03531e-20)
(-4.69464 -0.427566 -2.29886e-19)
(-5.33422 -0.366385 -9.67208e-20)
(-6.07003 -0.31019 -7.74675e-19)
(-5.23963 -0.256256 0)
(-4.30424 -0.217296 2.38822e-19)
(-3.72401 -0.18803 0)
(-3.27877 -0.165766 -1.81908e-19)
(-3.14861 -0.137649 -3.63016e-19)
(-2.9385 -0.118111 -7.7942e-20)
(-2.65538 -0.106742 1.59934e-19)
(-2.52215 -0.0923952 -1.15749e-19)
(-2.42457 -0.0809733 3.14462e-20)
(-2.24332 -0.0749203 3.09852e-19)
(-2.12895 -0.0691491 2.09541e-19)
(-2.08229 -0.0663141 8.52206e-20)
(-1.96834 -0.0626843 1.71654e-19)
(-1.88149 -0.0599519 4.34216e-20)
(-1.85868 -0.0681425 -4.92192e-20)
(-1.78754 -0.0651053 -1.96096e-19)
(-1.73423 -0.0616104 -1.93549e-19)
(-1.7077 -0.0775525 0)
(-1.6706 -0.0784343 -6.0639e-20)
(-1.64305 -0.0761683 6.0106e-20)
(-1.61857 -0.0882959 -1.08286e-19)
(-1.59785 -0.0981161 0)
(-1.58534 -0.0977389 9.81375e-20)
(-1.57349 -0.103792 0)
(-1.55509 -0.122663 0)
(-1.55107 -0.123529 0)
(-1.55135 -0.124036 0)
(-1.53141 -0.149228 0)
(-1.53124 -0.15167 4.5735e-20)
(-1.54024 -0.147204 0)
(-1.51754 -0.178474 -4.15493e-20)
(-1.51682 -0.18452 -6.9453e-21)
(-1.52187 -0.183936 0)
(-1.52876 -0.18311 0)
(-1.53318 -0.185706 -1.07971e-20)
(-1.51258 -0.215693 1.04034e-21)
(-1.51397 -0.220204 -2.97607e-21)
(-1.51842 -0.220835 3.94969e-21)
(-1.52311 -0.221533 2.99625e-21)
(-1.52961 -0.222477 -6.83093e-21)
(-1.51183 -0.256825 7.02786e-22)
(-1.51547 -0.258971 0)
(-1.51955 -0.259667 0)
(-1.52335 -0.260299 0)
(-1.51932 -0.276522 -2.27986e-21)
(-1.51705 -0.293162 -2.52492e-21)
(-1.51922 -0.293572 7.46883e-22)
(-1.51989 -0.300235 8.99184e-21)
(-1.5196 -0.321181 6.38549e-21)
(-1.52076 -0.321416 6.01759e-22)
(-1.52308 -0.338045 0)
(-1.52481 -0.344215 -1.82341e-21)
(-1.52677 -0.351072 -3.46028e-22)
(-1.53162 -0.3652 1.37015e-21)
(-1.53371 -0.370551 -5.89542e-21)
(-1.53998 -0.383743 -0)
(-1.54079 -0.386022 -0)
(-1.54717 -0.397193 1.55277e-20)
(-1.54869 -0.400552 7.16662e-22)
(-1.55268 -0.407104 -3.64287e-22)
(-1.56344 -0.421309 -3.30794e-20)
(-1.56888 -0.428406 -0)
(-1.56725 -0.427964 9.77432e-20)
(-1.56574 -0.427548 9.71592e-20)
(-1.56419 -0.427129 -0)
(-1.56259 -0.426691 -0)
(-1.561 -0.426257 3.0574e-20)
(-1.55938 -0.425813 -1.75735e-19)
(-1.55778 -0.425377 -3.42886e-22)
(-1.55625 -0.424959 3.268e-22)
(-1.55455 -0.424495 -1.08681e-19)
(-1.55293 -0.424051 -0)
(-1.5513 -0.42361 5.27028e-20)
(-1.54965 -0.423156 1.49846e-22)
(-1.54787 -0.422671 -1.50688e-19)
(-1.54601 -0.422164 1.0034e-19)
(-1.54421 -0.421672 -0)
(-1.5423 -0.42115 -0)
(-1.54035 -0.420617 1.39466e-22)
(-1.53847 -0.420102 -2.66872e-22)
(-1.53641 -0.419543 9.04465e-20)
(-1.53422 -0.418945 -9.01853e-20)
(-1.53198 -0.418333 -0)
(-1.53232 -0.420607 1.30858e-19)
(-1.53063 -0.420767 -4.3683e-20)
(-1.52793 -0.420026 -1.31285e-19)
(-1.52505 -0.419234 8.73588e-20)
(-1.52208 -0.418415 -2.61417e-19)
(-1.72597 -0.217711 -1.06518e-20)
(-1.94373 -0.170284 7.42143e-20)
(-2.45561 -0.121376 -1.21384e-20)
(-3.8177 -0.120993 1.90961e-20)
(-6.90412 -0.291063 1.34996e-18)
(-6.12096 -0.24371 5.39156e-19)
(-5.18667 -0.188752 4.22075e-19)
(-4.11453 -0.133924 -1.21792e-18)
(-3.53052 -0.111863 0)
(-2.98846 -0.0998595 -1.05302e-18)
(-2.6101 -0.0995214 -3.16085e-21)
(-2.21874 -0.11212 -1.85009e-19)
(-2.03338 -0.124867 1.70335e-21)
(-1.80674 -0.153207 -2.83385e-19)
(-1.67693 -0.179437 1.84717e-19)
(-1.57143 -0.212497 1.87873e-22)
(-1.51201 -0.240683 3.68387e-20)
(-1.46759 -0.274643 0)
(-1.44656 -0.305676 0)
(-1.44082 -0.335177 -6.2604e-21)
(-1.44588 -0.361337 0)
(-1.45434 -0.37883 7.02333e-20)
(-1.46056 -0.387796 5.85406e-22)
(-1.47174 -0.401881 -3.09345e-22)
(-1.47311 -0.402258 -1.54824e-22)
(-1.47455 -0.402651 1.54975e-22)
(-1.47595 -0.403032 1.56266e-19)
(-1.47735 -0.403416 5.0622e-20)
(-1.47888 -0.403834 0)
(-1.48035 -0.404233 0)
(-1.48182 -0.404636 -1.45887e-22)
(-1.48326 -0.405027 -1.44791e-19)
(-1.48471 -0.405424 1.41532e-22)
(-1.48634 -0.405871 0)
(-1.48795 -0.406309 1.41478e-19)
(-1.48955 -0.406744 -1.38342e-19)
(-1.49114 -0.407181 -4.62086e-20)
(-1.49287 -0.407651 1.38783e-19)
(-1.49464 -0.408138 9.26376e-20)
(-1.49649 -0.408639 1.35166e-19)
(-1.49836 -0.409151 1.29553e-22)
(-1.50026 -0.409668 -1.33088e-19)
(-1.50225 -0.410214 8.88035e-20)
(-1.50446 -0.410819 -4.43961e-20)
(-1.5067 -0.411429 -1.72032e-19)
(-1.50897 -0.412047 -4.24683e-20)
(-1.5114 -0.412712 1.2445e-22)
(-1.51404 -0.413434 -2.55416e-19)
(-1.51688 -0.414208 1.27926e-19)
)
;
    }
    outlet
    {
        type            calculated;
        value           uniform (0 0 0);
    }
}


// ************************************************************************* //
